version 2
run General-0-20160502-00:43:22-2144
attr configname General
attr datetime 20160502-00:43:22
attr experiment General
attr inifile omnetpp.ini
attr iterationvars ""
attr iterationvars2 $repetition=0
attr measurement ""
attr network Network
attr processid 2144
attr repetition 0
attr replication #0
attr resultdir results
attr runnumber 0
attr seedset 0

vector 12  Network.host[0].phy  bitrate:vector  ETV
attr interpolationmode  sample-hold
attr title  "tx bitrate, vector"
attr unit  bps
vector 14  Network.host[0].phy  radioState:vector  ETV
attr interpolationmode  sample-hold
attr title  "radio state (enum), vector"
vector 13  Network.host[0].phy  channelNo:vector  ETV
attr interpolationmode  sample-hold
attr title  "channel no, vector"
vector 28  Network.host[1].phy  bitrate:vector  ETV
attr interpolationmode  sample-hold
attr title  "tx bitrate, vector"
attr unit  bps
vector 30  Network.host[1].phy  radioState:vector  ETV
attr interpolationmode  sample-hold
attr title  "radio state (enum), vector"
vector 29  Network.host[1].phy  channelNo:vector  ETV
attr interpolationmode  sample-hold
attr title  "channel no, vector"
vector 4  Network.host[0].spi  setRxMode_time:vector  ETV
vector 19  Network.host[1].spi  setTxMode_time:vector  ETV
vector 22  Network.host[1].spi  startTx_time:vector  ETV
vector 7  Network.host[0].spi  RxNoFrame_time:vector  ETV
vector 17  Network.host[1].app  Workload:vector  ETV
vector 18  Network.host[1].app  WorkloadPeriod:vector  ETV
vector 8  Network.host[0].spi  DataframeArrivalPeriod:vector  ETV
vector 10  Network.host[0].spi  ArrivedDataframesCount:vector  ETV
vector 5  Network.host[0].spi  getReceivedData_time:vector  ETV
vector 0  Network.host[0].app  Throughput:vector  ETV
vector 15  Network.host[0].phy  lossRate:vector  ETV
attr interpolationmode  backward-sample-hold
attr title  "packet loss rate, vector"
0	72	0.003958500343	80838.694523766
0	101	0.005054667124	126615.65723314
0	137	0.007247000686	132468.59516028
0	173	0.009439334248	135602.78366784
0	209	0.01163166781	137555.510193
0	245	0.013824001372	138888.87510449
0	281	0.016016334934	139857.21510137
0	317	0.018208668496	140592.37777668
0	353	0.020401002058	141169.53627141
0	389	0.02259333562	141634.68616681
0	425	0.024785669182	142017.54950221
0	461	0.026978002744	142338.18701994
0	497	0.029170336306	142610.62870037
0	533	0.031362669868	142844.98159294
0	569	0.03355500343	143048.71134981
0	605	0.035747336992	143227.45219164
0	641	0.037939670554	143385.53605143
0	677	0.040132004116	143526.34828181
0	713	0.042324337678	143652.5728118
0	749	0.04451667124	143766.36486354
0	785	0.046709004802	143869.4750292
0	821	0.048901338364	143963.33997236
0	857	0.051093671926	144049.14977846
0	893	0.053286005488	144127.89867932
0	929	0.05547833905	144200.42375079
0	965	0.057670672612	144267.43478398
0	1001	0.059863006174	144329.53759266
0	1037	0.062055339736	144387.25238019
0	1073	0.064247673298	144441.02834598
0	1109	0.06644000686	144491.25540021
0	1145	0.068632340422	144538.27363317
0	1181	0.070824673984	144582.38102604
0	1217	0.073017007546	144623.8397725
0	1253	0.075209341108	144662.88149469
0	1289	0.07740167467	144699.71157279
0	1325	0.079594008232	144734.51275907
0	1361	0.081786341794	144767.44821063
0	1397	0.083978675356	144798.66404717
0	1433	0.086171008918	144828.29151828
0	1469	0.08836334248	144856.44884809
0	1505	0.090555676042	144883.24281202
0	1541	0.092748009604	144908.77008988
0	1577	0.094940343166	144933.11843145
0	1613	0.097132676728	144956.36766428
0	1649	0.09932501029	144978.59056804
0	1685	0.101517343852	144999.85363545
0	1721	0.103709677414	145020.21773688
0	1757	0.105902010976	145039.73870223
0	1793	0.108094344538	145058.46783212
0	1829	0.1102866781	145076.45234806
0	1865	0.112479011662	145093.73578994
0	1901	0.114671345224	145110.35836804
0	1937	0.116863678786	145126.35727527
0	1973	0.119056012348	145141.76696504
0	2009	0.12124834591	145156.61939887
0	2045	0.123440679472	145170.94426773
0	2081	0.125633013034	145184.76919012
0	2117	0.127825346596	145198.11988979
0	2153	0.130017680158	145211.02035551
0	2189	0.13221001372	145223.4929849
0	2225	0.134402347282	145235.55871419
0	2261	0.136594680844	145247.23713553
0	2297	0.138787014406	145258.54660311
0	2333	0.140979347968	145269.50432945
0	2369	0.14317168153	145280.12647279
0	2405	0.145364015092	145290.42821659
0	2441	0.147556348654	145300.42384197
0	2477	0.149748682216	145310.12679372
0	2513	0.151941015778	145319.54974068
0	2549	0.15413334934	145328.70463087
0	2585	0.156325682902	145337.60274211
0	2621	0.158518016464	145346.25472829
0	2657	0.160710350026	145354.67066198
0	2693	0.162902683588	145362.8600735
0	2729	0.16509501715	145370.83198698
0	2765	0.167287350712	145378.59495348
0	2801	0.169479684274	145386.1570816
0	2837	0.171672017836	145393.52606576
0	2873	0.173864351398	145400.70921227
0	2909	0.17605668496	145407.71346351
0	2945	0.178249018522	145414.54542035
0	2981	0.180441352084	145421.21136282
0	3017	0.182633685646	145427.71726943
0	3053	0.184826019208	145434.06883503
0	3089	0.18701835277	145440.27148743
0	3125	0.189210686332	145446.33040288
0	3161	0.191403019894	145452.25052049
0	3197	0.193595353456	145458.03655561
0	3233	0.195787687018	145463.69301243
0	3269	0.19798002058	145469.22419559
0	3305	0.200172354142	145474.63422118
0	3341	0.202364687704	145479.9270269
0	3377	0.204557021266	145485.10638166
0	3413	0.206749354828	145490.1758945
0	3449	0.20894168839	145495.13902298
0	3485	0.211134021952	145499.99908108
0	3521	0.213326355514	145504.75924651
0	3557	0.215518689076	145509.42256772
0	3593	0.217711022638	145513.99197034
0	3629	0.2199033562	145518.47026335
0	3665	0.222095689762	145522.86014481
0	3701	0.224288023324	145527.16420729
0	3737	0.226480356886	145531.38494298
0	3773	0.228672690448	145535.5247485
0	3809	0.23086502401	145539.58592942
0	3845	0.233057357572	145543.57070457
0	3881	0.235249691134	145547.48121007
0	3917	0.237442024696	145551.31950314
0	3953	0.239634358258	145555.08756573
0	3989	0.24182669182	145558.7873079
0	4025	0.244019025382	145562.42057108
0	4061	0.246211358944	145565.98913112
0	4097	0.248403692506	145569.49470116
0	4133	0.250596026068	145572.9389344
0	4169	0.25278835963	145576.32342669
0	4205	0.254980693192	145579.649719
0	4241	0.257173026754	145582.91929975
0	4277	0.259365360316	145586.13360703
0	4313	0.261557693878	145589.29403072
0	4349	0.26375002744	145592.40191448
0	4385	0.265942361002	145595.45855769
0	4421	0.268134694564	145598.4652172
0	4457	0.270327028126	145601.4231091
0	4493	0.272519361688	145604.33341037
0	4529	0.27471169525	145607.19726038
0	4565	0.276904028812	145610.01576245
0	4601	0.279096362374	145612.78998521
0	4637	0.281288695936	145615.52096398
0	4673	0.283481029498	145618.20970208
0	4709	0.28567336306	145620.85717198
0	4745	0.287865696622	145623.46431658
0	4781	0.290058030184	145626.03205022
0	4817	0.292250363746	145628.56125986
0	4853	0.294442697308	145631.05280599
0	4889	0.29663503087	145633.5075237
0	4925	0.298827364432	145635.92622356
0	4961	0.301019697994	145638.30969252
0	4997	0.303212031556	145640.65869479
0	5033	0.305404365118	145642.9739726
0	5069	0.30759669868	145645.25624707
0	5105	0.309789032242	145647.50621886
0	5141	0.311981365804	145649.72456896
0	5177	0.314173699366	145651.91195935
0	5213	0.316366032928	145654.06903366
0	5249	0.31855836649	145656.1964178
0	5285	0.320750700052	145658.29472056
0	5321	0.322943033614	145660.36453421
0	5357	0.325135367176	145662.40643505
0	5393	0.327327700738	145664.42098392
0	5431	0.3295200343	145666.40872676
0	5468	0.331712367862	145668.37019505
0	5504	0.333904701424	145670.30590634
0	5540	0.336097034986	145672.21636466
0	5576	0.338289368548	145674.10206096
0	5612	0.34048170211	145675.96347358
0	5648	0.342674035672	145677.8010686
0	5684	0.344866369234	145679.61530024
0	5720	0.347058702796	145681.40661126
0	5756	0.349251036358	145683.17543329
0	5792	0.35144336992	145684.92218719
0	5828	0.353635703482	145686.6472834
0	5864	0.355828037044	145688.35112223
0	5900	0.358020370606	145690.03409418
0	5936	0.360212704168	145691.69658026
0	5972	0.36240503773	145693.33895225
0	6008	0.364597371292	145694.96157299
0	6044	0.366789704854	145696.56479664
0	6080	0.368982038416	145698.14896895
0	6116	0.371174371978	145699.7144275
0	6152	0.37336670554	145701.26150194
0	6188	0.375559039102	145702.79051422
0	6224	0.377751372664	145704.30177882
0	6260	0.379943706226	145705.79560297
0	6296	0.382136039788	145707.27228683
0	6332	0.38432837335	145708.73212372
0	6368	0.386520706912	145710.17540031
0	6404	0.388713040474	145711.6023968
0	6440	0.390905374036	145713.01338711
0	6476	0.393097707598	145714.40863903
0	6512	0.39529004116	145715.78841443
0	6548	0.397482374722	145717.15296938
0	6584	0.399674708284	145718.50255437
0	6620	0.401867041846	145719.83741439
0	6656	0.404059375408	145721.15778911
0	6692	0.40625170897	145722.46391306
0	6728	0.408444042532	145723.7560157
0	6764	0.410636376094	145725.03432161
0	6800	0.412828709656	145726.29905059
0	6836	0.415021043218	145727.5504178
0	6872	0.41721337678	145728.78863388
0	6908	0.419405710342	145730.01390506
0	6944	0.421598043904	145731.22643328
0	6980	0.423790377466	145732.4264163
0	7016	0.425982711028	145733.61404782
0	7052	0.42817504459	145734.78951757
0	7088	0.430367378152	145735.9530114
0	7124	0.432559711714	145737.10471141
0	7160	0.434752045276	145738.24479601
0	7196	0.436944378838	145739.37344005
0	7232	0.4391367124	145740.49081486
0	7268	0.441329045962	145741.5970884
0	7304	0.443521379524	145742.69242528
0	7340	0.445713713086	145743.77698688
0	7376	0.447906046648	145744.85093143
0	7412	0.45009838021	145745.91441407
0	7448	0.452290713772	145746.96758694
0	7484	0.454483047334	145748.01059922
0	7520	0.456675380896	145749.04359725
0	7556	0.458867714458	145750.06672456
0	7592	0.46106004802	145751.08012196
0	7628	0.463252381582	145752.0839276
0	7664	0.465444715144	145753.078277
0	7700	0.467637048706	145754.06330317
0	7736	0.469829382268	145755.03913661
0	7772	0.47202171583	145756.00590541
0	7808	0.474214049392	145756.9637353
0	7844	0.476406382954	145757.91274968
0	7880	0.478598716516	145758.85306969
0	7916	0.480791050078	145759.78481428
0	7952	0.48298338364	145760.70810021
0	7988	0.485175717202	145761.62304214
0	8024	0.487368050764	145762.52975269
0	8060	0.489560384326	145763.42834244
0	8096	0.491752717888	145764.31891999
0	8132	0.49394505145	145765.20159204
0	8168	0.496137385012	145766.07646338
0	8204	0.498329718574	145766.94363696
0	8240	0.500522052136	145767.80321394
0	8276	0.502714385698	145768.65529371
0	8312	0.50490671926	145769.49997391
0	8348	0.507099052822	145770.33735054
0	8384	0.509291386384	145771.16751789
0	8420	0.511483719946	145771.99056868
0	8456	0.513676053508	145772.80659402
0	8492	0.51586838707	145773.61568348
0	8528	0.518060720632	145774.41792512
0	8564	0.520253054194	145775.21340551
0	8600	0.522445387756	145776.00220976
0	8636	0.524637721318	145776.78442157
0	8672	0.52683005488	145777.56012324
0	8708	0.529022388442	145778.3293957
0	8744	0.531214722004	145779.09231856
0	8780	0.533407055566	145779.84897011
0	8816	0.535599389128	145780.59942735
0	8852	0.53779172269	145781.34376604
0	8888	0.539984056252	145782.0820607
0	8924	0.542176389814	145782.81438466
0	8960	0.544368723376	145783.54081005
0	8996	0.546561056938	145784.26140785
0	9032	0.5487533905	145784.97624791
0	9068	0.550945724062	145785.68539895
0	9104	0.553138057624	145786.38892863
0	9140	0.555330391186	145787.08690352
0	9176	0.557522724748	145787.77938915
0	9212	0.55971505831	145788.46645002
0	9248	0.561907391872	145789.14814963
0	9284	0.564099725434	145789.82455049
0	9320	0.566292058996	145790.49571413
0	9356	0.568484392558	145791.16170114
0	9392	0.57067672612	145791.8225712
0	9428	0.572869059682	145792.47838304
0	9464	0.575061393244	145793.12919451
0	9500	0.577253726806	145793.7750626
0	9536	0.579446060368	145794.4160434
0	9572	0.58163839393	145795.05219218
0	9608	0.583830727492	145795.68356338
0	9644	0.586023061054	145796.31021061
0	9680	0.588215394616	145796.9321867
0	9716	0.590407728178	145797.54954367
0	9752	0.59260006174	145798.16233281
0	9788	0.594792395302	145798.77060461
0	9824	0.596984728864	145799.37440884
0	9860	0.599177062426	145799.97379454
0	9896	0.601369395988	145800.56881004
0	9932	0.60356172955	145801.15950296
0	9968	0.605754063112	145801.74592023
0	10004	0.607946396674	145802.3281081
0	10040	0.610138730236	145802.90611217
0	10076	0.612331063798	145803.47997738
0	10112	0.61452339736	145804.04974802
0	10148	0.616715730922	145804.61546776
0	10184	0.618908064484	145805.17717964
0	10220	0.621100398046	145805.73492612
0	10256	0.623292731608	145806.28874902
0	10292	0.62548506517	145806.83868961
0	10328	0.627677398732	145807.38478856
0	10364	0.629869732294	145807.927086
0	10400	0.632062065856	145808.46562147
0	10436	0.634254399418	145809.00043399
0	10472	0.63644673298	145809.53156203
0	10508	0.638639066542	145810.05904354
0	10544	0.640831400104	145810.58291594
0	10580	0.643023733666	145811.10321614
0	10616	0.645216067228	145811.61998056
0	10652	0.64740840079	145812.13324512
0	10688	0.649600734352	145812.64304525
0	10724	0.651793067914	145813.14941591
0	10760	0.653985401476	145813.6523916
0	10796	0.656177735038	145814.15200633
0	10832	0.6583700686	145814.64829369
0	10868	0.660562402162	145815.1412868
0	10904	0.662754735724	145815.63101836
0	10940	0.664947069286	145816.11752062
0	10976	0.667139402848	145816.60082543
0	11012	0.66933173641	145817.08096419
0	11048	0.671524069972	145817.55796793
0	11084	0.673716403534	145818.03186724
0	11120	0.675908737096	145818.50269233
0	11156	0.678101070658	145818.97047302
0	11192	0.68029340422	145819.43523874
0	11228	0.682485737782	145819.89701855
0	11264	0.684678071344	145820.35584113
0	11300	0.686870404906	145820.81173479
0	11336	0.689062738468	145821.2647275
0	11372	0.69125507203	145821.71484685
0	11408	0.693447405592	145822.1621201
0	11444	0.695639739154	145822.60657415
0	11480	0.697832072716	145823.04823558
0	11516	0.700024406278	145823.48713062
0	11552	0.70221673984	145823.92328518
0	11588	0.704409073402	145824.35672486
0	11624	0.706601406964	145824.78747491
0	11660	0.708793740526	145825.21556031
0	11696	0.710986074088	145825.64100569
0	11732	0.71317840765	145826.0638354
0	11768	0.715370741212	145826.4840735
0	11804	0.717563074774	145826.90174373
0	11840	0.719755408336	145827.31686957
0	11876	0.721947741898	145827.72947418
0	11912	0.72414007546	145828.13958048
0	11948	0.726332409022	145828.54721108
0	11984	0.728524742584	145828.95238833
0	12020	0.730717076146	145829.35513431
0	12056	0.732909409708	145829.75547085
0	12092	0.73510174327	145830.15341949
0	12128	0.737294076832	145830.54900155
0	12164	0.739486410394	145830.94223806
0	12200	0.741678743956	145831.33314984
0	12236	0.743871077518	145831.72175742
0	12272	0.74606341108	145832.10808114
0	12308	0.748255744642	145832.49214105
0	12344	0.750448078204	145832.873957
0	12380	0.752640411766	145833.25354861
0	12416	0.754832745328	145833.63093524
0	12452	0.75702507889	145834.00613607
0	12488	0.759217412452	145834.37917001
0	12524	0.761409746014	145834.7500558
0	12560	0.763602079576	145835.11881193
0	12596	0.765794413138	145835.48545669
0	12632	0.7679867467	145835.85000817
0	12668	0.770179080262	145836.21248423
0	12704	0.772371413824	145836.57290256
0	12740	0.774563747386	145836.93128063
0	12776	0.776756080948	145837.28763571
0	12812	0.77894841451	145837.64198488
0	12848	0.781140748072	145837.99434503
0	12884	0.783333081634	145838.34473287
0	12920	0.785525415196	145838.6931649
0	12956	0.787717748758	145839.03965746
0	12992	0.78991008232	145839.38422669
0	13028	0.792102415882	145839.72688856
0	13064	0.794294749444	145840.06765887
0	13100	0.796487083006	145840.40655324
0	13136	0.798679416568	145840.74358711
0	13172	0.80087175013	145841.07877577
0	13208	0.803064083692	145841.41213433
0	13244	0.805256417254	145841.74367772
0	13280	0.807448750816	145842.07342075
0	13316	0.809641084378	145842.40137803
0	13352	0.81183341794	145842.72756403
0	13388	0.814025751502	145843.05199307
0	13424	0.816218085064	145843.37467929
0	13460	0.818410418626	145843.69563671
0	13496	0.820602752188	145844.01487918
0	13532	0.82279508575	145844.33242041
0	13568	0.824987419312	145844.64827396
0	13604	0.827179752874	145844.96245325
0	13640	0.829372086436	145845.27497157
0	13676	0.831564419998	145845.58584203
0	13712	0.83375675356	145845.89507766
0	13748	0.835949087122	145846.2026913
0	13784	0.838141420684	145846.50869568
0	13820	0.840333754246	145846.81310341
0	13856	0.842526087808	145847.11592693
0	13892	0.84471842137	145847.4171786
0	13928	0.846910754932	145847.71687061
0	13964	0.849103088494	145848.01501505
0	14000	0.851295422056	145848.31162387
0	14036	0.853487755618	145848.60670891
0	14072	0.85568008918	145848.90028188
0	14108	0.857872422742	145849.19235436
0	14144	0.860064756304	145849.48293784
0	14180	0.862257089866	145849.77204368
0	14216	0.864449423428	145850.05968311
0	14252	0.86664175699	145850.34586726
0	14288	0.868834090552	145850.63060715
0	14324	0.871026424114	145850.91391369
0	14360	0.873218757676	145851.19579767
0	14396	0.875411091238	145851.47626978
0	14432	0.8776034248	145851.7553406
0	14468	0.879795758362	145852.0330206
0	14504	0.881988091924	145852.30932016
0	14540	0.884180425486	145852.58424955
0	14576	0.886372759048	145852.85781893
0	14612	0.88856509261	145853.13003837
0	14648	0.890757426172	145853.40091783
0	14684	0.892949759734	145853.67046719
0	14720	0.895142093296	145853.93869622
0	14756	0.897334426858	145854.20561459
0	14792	0.89952676042	145854.4712319
0	14828	0.901719093982	145854.73555762
0	14864	0.903911427544	145854.99860116
0	14900	0.906103761106	145855.26037182
0	14936	0.908296094668	145855.52087882
0	14972	0.91048842823	145855.78013129
0	15008	0.912680761792	145856.03813827
0	15044	0.914873095354	145856.29490871
0	15080	0.917065428916	145856.55045149
0	15116	0.919257762478	145856.80477537
0	15152	0.92145009604	145857.05788908
0	15188	0.923642429602	145857.30980121
0	15224	0.925834763164	145857.56052031
0	15260	0.928027096726	145857.81005483
0	15296	0.930219430288	145858.05841316
0	15332	0.93241176385	145858.30560357
0	15368	0.934604097412	145858.5516343
0	15404	0.936796430974	145858.79651349
0	15440	0.938988764536	145859.0402492
0	15476	0.941181098098	145859.28284942
0	15512	0.94337343166	145859.52432206
0	15548	0.945565765222	145859.76467498
0	15584	0.947758098784	145860.00391594
0	15620	0.949950432346	145860.24205264
0	15656	0.952142765908	145860.47909271
0	15692	0.95433509947	145860.71504371
0	15728	0.956527433032	145860.94991311
0	15764	0.958719766594	145861.18370836
0	15800	0.960912100156	145861.41643679
0	15836	0.963104433718	145861.64810569
0	15872	0.96529676728	145861.87872228
0	15908	0.967489100842	145862.10829371
0	15944	0.969681434404	145862.33682708
0	15980	0.971873767966	145862.5643294
0	16016	0.974066101528	145862.79080765
0	16052	0.97625843509	145863.01626871
0	16088	0.978450768652	145863.24071943
0	16124	0.980643102214	145863.46416658
0	16160	0.982835435776	145863.68661688
0	16196	0.985027769338	145863.90807699
0	16232	0.9872201029	145864.12855349
0	16268	0.989412436462	145864.34805294
0	16304	0.991604770024	145864.5665818
0	16340	0.993797103586	145864.78414651
0	16376	0.995989437148	145865.00075343
0	16412	0.99818177071	145865.21640887
0	16448	1.000374104272	145865.43111908
0	16484	1.002566437834	145865.64489027
0	16520	1.004758771396	145865.85772859
0	16556	1.006951104958	145866.06964012
0	16592	1.00914343852	145866.28063091
0	16628	1.011335772082	145866.49070694
0	16664	1.013528105644	145866.69987416
0	16700	1.015720439206	145866.90813844
0	16736	1.017912772768	145867.11550562
0	16772	1.02010510633	145867.32198149
0	16808	1.022297439892	145867.52757177
0	16844	1.024489773454	145867.73228216
0	16880	1.026682107016	145867.93611829
0	16916	1.028874440578	145868.13908575
0	16952	1.03106677414	145868.34119007
0	16988	1.033259107702	145868.54243676
0	17024	1.035451441264	145868.74283126
0	17060	1.037643774826	145868.94237898
0	17096	1.039836108388	145869.14108526
0	17132	1.04202844195	145869.33895543
0	17168	1.044220775512	145869.53599474
0	17204	1.046413109074	145869.73220842
0	17240	1.048605442636	145869.92760164
0	17276	1.050797776198	145870.12217955
0	17312	1.05299010976	145870.31594723
0	17348	1.055182443322	145870.50890974
0	17384	1.057374776884	145870.70107208
0	17420	1.059567110446	145870.89243922
0	17456	1.061759444008	145871.08301608
0	17492	1.06395177757	145871.27280756
0	17528	1.066144111132	145871.46181849
0	17564	1.068336444694	145871.65005368
0	17600	1.070528778256	145871.8375179
0	17636	1.072721111818	145872.02421588
0	17672	1.07491344538	145872.2101523
0	17708	1.077105778942	145872.39533181
0	17744	1.079298112504	145872.57975902
0	17780	1.081490446066	145872.76343852
0	17816	1.083682779628	145872.94637483
0	17852	1.08587511319	145873.12857246
0	17888	1.088067446752	145873.31003588
0	17924	1.090259780314	145873.49076951
0	17960	1.092452113876	145873.67077775
0	17996	1.094644447438	145873.85006495
0	18032	1.096836781	145874.02863544
0	18068	1.099029114562	145874.20649351
0	18104	1.101221448124	145874.38364342
0	18140	1.103413781686	145874.56008938
0	18176	1.105606115248	145874.73583558
0	18212	1.10779844881	145874.91088617
0	18248	1.109990782372	145875.08524529
0	18284	1.112183115934	145875.25891701
0	18320	1.114375449496	145875.4319054
0	18356	1.116567783058	145875.60421447
0	18392	1.11876011662	145875.77584823
0	18428	1.120952450182	145875.94681063
0	18464	1.123144783744	145876.11710561
0	18500	1.125337117306	145876.28673707
0	18536	1.127529450868	145876.45570888
0	18572	1.12972178443	145876.62402487
0	18608	1.131914117992	145876.79168886
0	18644	1.134106451554	145876.95870463
0	18680	1.136298785116	145877.12507594
0	18716	1.138491118678	145877.29080649
0	18752	1.14068345224	145877.4559
0	18788	1.142875785802	145877.62036012
0	18824	1.145068119364	145877.7841905
0	18860	1.147260452926	145877.94739474
0	18896	1.149452786488	145878.10997642
0	18932	1.15164512005	145878.27193911
0	18968	1.153837453612	145878.43328632
0	19004	1.156029787174	145878.59402157
0	19040	1.158222120736	145878.75414833
0	19076	1.160414454298	145878.91367004
0	19112	1.16260678786	145879.07259012
0	19148	1.164799121422	145879.23091199
0	19184	1.166991454984	145879.388639
0	19220	1.169183788546	145879.5457745
0	19256	1.171376122108	145879.70232182
0	19292	1.17356845567	145879.85828425
0	19328	1.175760789232	145880.01366505
0	19364	1.177953122794	145880.16846749
0	19400	1.180145456356	145880.32269479
0	19436	1.182337789918	145880.47635013
0	19472	1.18453012348	145880.6294367
0	19508	1.186722457042	145880.78195766
0	19544	1.188914790604	145880.93391612
0	19580	1.191107124166	145881.0853152
0	19616	1.193299457728	145881.23615797
0	19652	1.19549179129	145881.38644751
0	19688	1.197684124852	145881.53618684
0	19724	1.199876458414	145881.68537898
0	19760	1.202068791976	145881.83402693
0	19796	1.204261125538	145881.98213366
0	19832	1.2064534591	145882.12970212
0	19868	1.208645792662	145882.27673524
0	19904	1.210838126224	145882.42323592
0	19940	1.213030459786	145882.56920706
0	19976	1.215222793348	145882.71465151
0	20012	1.21741512691	145882.85957213
0	20048	1.219607460472	145883.00397174
0	20084	1.221799794034	145883.14785314
0	20120	1.223992127596	145883.29121912
0	20156	1.226184461158	145883.43407245
0	20192	1.22837679472	145883.57641586
0	20228	1.230569128282	145883.71825208
0	20264	1.232761461844	145883.85958382
0	20300	1.234953795406	145884.00041377
0	20336	1.237146128968	145884.1407446
0	20372	1.23933846253	145884.28057894
0	20408	1.241530796092	145884.41991944
0	20444	1.243723129654	145884.5587687
0	20480	1.245915463216	145884.69712932
0	20516	1.248107796778	145884.83500387
0	20552	1.25030013034	145884.97239491
0	20588	1.252492463902	145885.10930497
0	20624	1.254684797464	145885.24573659
0	20660	1.256877131026	145885.38169226
0	20696	1.259069464588	145885.51717447
0	20732	1.26126179815	145885.65218568
0	20768	1.263454131712	145885.78672836
0	20804	1.265646465274	145885.92080493
0	20840	1.267838798836	145886.05441781
0	20876	1.270031132398	145886.18756941
0	20912	1.27222346596	145886.3202621
0	20948	1.274415799522	145886.45249826
0	20984	1.276608133084	145886.58428024
0	21020	1.278800466646	145886.71561038
0	21056	1.280992800208	145886.84649098
0	21092	1.28318513377	145886.97692437
0	21128	1.285377467332	145887.10691283
0	21164	1.287569800894	145887.23645862
0	21200	1.289762134456	145887.36556401
0	21236	1.291954468018	145887.49423124
0	21272	1.29414680158	145887.62246253
0	21308	1.296339135142	145887.75026011
0	21344	1.298531468704	145887.87762615
0	21380	1.300723802266	145888.00456286
0	21416	1.302916135828	145888.13107238
0	21452	1.30510846939	145888.25715689
0	21488	1.307300802952	145888.3828185
0	21524	1.309493136514	145888.50805936
0	21560	1.311685470076	145888.63288156
0	21596	1.313877803638	145888.75728721
0	21632	1.3160701372	145888.88127839
0	21668	1.318262470762	145889.00485715
0	21704	1.320454804324	145889.12802557
0	21740	1.322647137886	145889.25078567
0	21776	1.324839471448	145889.37313949
0	21812	1.32703180501	145889.49508904
0	21848	1.329224138572	145889.61663631
0	21884	1.331416472134	145889.7377833
0	21920	1.333608805696	145889.85853199
0	21956	1.335801139258	145889.97888432
0	21992	1.33799347282	145890.09884225
0	22028	1.340185806382	145890.21840772
0	22064	1.342378139944	145890.33758265
0	22100	1.344570473506	145890.45636895
0	22136	1.346762807068	145890.57476851
0	22172	1.34895514063	145890.69278322
0	22208	1.351147474192	145890.81041496
0	22244	1.353339807754	145890.92766559
0	22280	1.355532141316	145891.04453695
0	22316	1.357724474878	145891.16103088
0	22352	1.35991680844	145891.27714922
0	22388	1.362109142002	145891.39289376
0	22424	1.364301475564	145891.50826632
0	22460	1.366493809126	145891.62326868
0	22496	1.368686142688	145891.73790263
0	22532	1.37087847625	145891.85216993
0	22568	1.373070809812	145891.96607233
0	22604	1.375263143374	145892.07961159
0	22640	1.377455476936	145892.19278943
0	22676	1.379647810498	145892.30560758
0	22712	1.38184014406	145892.41806775
0	22748	1.384032477622	145892.53017164
0	22784	1.386224811184	145892.64192095
0	22820	1.388417144746	145892.75331734
0	22856	1.390609478308	145892.8643625
0	22892	1.39280181187	145892.97505808
0	22928	1.394994145432	145893.08540573
0	22964	1.397186478994	145893.19540708
0	23000	1.399378812556	145893.30506376
0	23036	1.401571146118	145893.4143774
0	23072	1.40376347968	145893.52334959
0	23108	1.405955813242	145893.63198194
0	23144	1.408148146804	145893.74027603
0	23180	1.410340480366	145893.84823344
0	23216	1.412532813928	145893.95585574
0	23252	1.41472514749	145894.06314449
0	23288	1.416917481052	145894.17010123
0	23324	1.419109814614	145894.2767275
0	23360	1.421302148176	145894.38302483
0	23396	1.423494481738	145894.48899474
0	23432	1.4256868153	145894.59463875
0	23468	1.427879148862	145894.69995835
0	23504	1.430071482424	145894.80495503
0	23540	1.432263815986	145894.90963028
0	23576	1.434456149548	145895.01398558
0	23612	1.43664848311	145895.11802238
0	23648	1.438840816672	145895.22174214
0	23684	1.441033150234	145895.32514631
0	23720	1.443225483796	145895.42823633
0	23756	1.445417817358	145895.53101362
0	23792	1.44761015092	145895.63347962
0	23828	1.449802484482	145895.73563572
0	23864	1.451994818044	145895.83748334
0	23900	1.454187151606	145895.93902387
0	23936	1.456379485168	145896.04025869
0	23972	1.45857181873	145896.14118919
0	24008	1.460764152292	145896.24181673
0	24044	1.462956485854	145896.34214267
0	24080	1.465148819416	145896.44216838
0	24116	1.467341152978	145896.5418952
0	24152	1.46953348654	145896.64132445
0	24188	1.471725820102	145896.74045748
0	24224	1.473918153664	145896.83929561
0	24260	1.476110487226	145896.93784015
0	24296	1.478302820788	145897.0360924
0	24332	1.48049515435	145897.13405366
0	24368	1.482687487912	145897.23172523
0	24404	1.484879821474	145897.32910839
0	24440	1.487072155036	145897.42620441
0	24476	1.489264488598	145897.52301456
0	24512	1.49145682216	145897.61954011
0	24548	1.493649155722	145897.7157823
0	24584	1.495841489284	145897.81174238
0	24620	1.498033822846	145897.90742159
0	24656	1.500226156408	145898.00282117
0	24692	1.50241848997	145898.09794232
0	24728	1.504610823532	145898.19278628
0	24764	1.506803157094	145898.28735426
0	24800	1.508995490656	145898.38164744
0	24836	1.511187824218	145898.47566704
0	24872	1.51338015778	145898.56941424
0	24908	1.515572491342	145898.66289022
0	24944	1.517764824904	145898.75609616
0	24980	1.519957158466	145898.84903322
0	25016	1.522149492028	145898.94170258
0	25052	1.52434182559	145899.03410537
0	25088	1.526534159152	145899.12624276
0	25124	1.528726492714	145899.21811588
0	25160	1.530918826276	145899.30972587
0	25196	1.533111159838	145899.40107385
0	25232	1.5353034934	145899.49216095
0	25268	1.537495826962	145899.5829883
0	25304	1.539688160524	145899.67355698
0	25340	1.541880494086	145899.76386812
0	25376	1.544072827648	145899.85392279
0	25412	1.54626516121	145899.94372211
0	25448	1.548457494772	145900.03326715
0	25484	1.550649828334	145900.12255899
0	25520	1.552842161896	145900.21159869
0	25556	1.555034495458	145900.30038734
0	25592	1.55722682902	145900.38892599
0	25628	1.559419162582	145900.47721569
0	25664	1.561611496144	145900.56525749
0	25700	1.563803829706	145900.65305243
0	25736	1.565996163268	145900.74060156
0	25772	1.56818849683	145900.8279059